Title: **.subckt tsmc_bandgap_real_op
Date: Sat May 28 19:30:14  2022
Plotname: Operating Point
Flags: real
No. Variables: 4220
No. Points: 1
Variables:
	0	v(vdd)	voltage
	1	i(@b.xbgr.xsky130_asc_res_xhigh_po_2p85_1_0.x0.brbody[i])	current
	2	i(@b.xbgr.xsky130_asc_res_xhigh_po_2p85_1_0.x1.brbody[i])	current
	3	i(@b.xbgr.xsky130_asc_res_xhigh_po_2p85_1_1.x0.brbody[i])	current
	4	i(@b.xbgr.xsky130_asc_res_xhigh_po_2p85_1_1.x1.brbody[i])	current
	5	i(@b.xbgr.xsky130_asc_res_xhigh_po_2p85_1_2.x0.brbody[i])	current
	6	i(@b.xbgr.xsky130_asc_res_xhigh_po_2p85_1_2.x1.brbody[i])	current
	7	i(@b.xbgr.xsky130_asc_res_xhigh_po_2p85_1_3.x0.brbody[i])	current
	8	i(@b.xbgr.xsky130_asc_res_xhigh_po_2p85_1_3.x1.brbody[i])	current
	9	i(@b.xbgr.xsky130_asc_res_xhigh_po_2p85_1_4.x0.brbody[i])	current
	10	i(@b.xbgr.xsky130_asc_res_xhigh_po_2p85_1_4.x1.brbody[i])	current
	11	i(@b.xbgr.xsky130_asc_res_xhigh_po_2p85_1_5.x0.brbody[i])	current
	12	i(@b.xbgr.xsky130_asc_res_xhigh_po_2p85_1_5.x1.brbody[i])	current
	13	i(@b.xbgr.xsky130_asc_res_xhigh_po_2p85_1_6.x0.brbody[i])	current
	14	i(@b.xbgr.xsky130_asc_res_xhigh_po_2p85_1_6.x1.brbody[i])	current
	15	i(@b.xbgr.xsky130_asc_res_xhigh_po_2p85_1_7.x0.brbody[i])	current
	16	i(@b.xbgr.xsky130_asc_res_xhigh_po_2p85_1_7.x1.brbody[i])	current
	17	i(@b.xbgr.xsky130_asc_res_xhigh_po_2p85_1_8.x0.brbody[i])	current
	18	i(@b.xbgr.xsky130_asc_res_xhigh_po_2p85_1_8.x1.brbody[i])	current
	19	i(@b.xbgr.xsky130_asc_res_xhigh_po_2p85_1_9.x0.brbody[i])	current
	20	i(@b.xbgr.xsky130_asc_res_xhigh_po_2p85_1_9.x1.brbody[i])	current
	21	i(@b.xbgr.xsky130_asc_res_xhigh_po_2p85_1_10.x0.brbody[i])	current
	22	i(@b.xbgr.xsky130_asc_res_xhigh_po_2p85_1_10.x1.brbody[i])	current
	23	i(@b.xbgr.xsky130_asc_res_xhigh_po_2p85_1_11.x0.brbody[i])	current
	24	i(@b.xbgr.xsky130_asc_res_xhigh_po_2p85_1_11.x1.brbody[i])	current
	25	i(@b.xbgr.xsky130_asc_res_xhigh_po_2p85_1_12.x0.brbody[i])	current
	26	i(@b.xbgr.xsky130_asc_res_xhigh_po_2p85_1_12.x1.brbody[i])	current
	27	i(@b.xbgr.xsky130_asc_res_xhigh_po_2p85_1_13.x0.brbody[i])	current
	28	i(@b.xbgr.xsky130_asc_res_xhigh_po_2p85_1_13.x1.brbody[i])	current
	29	i(@b.xbgr.xsky130_asc_res_xhigh_po_2p85_1_14.x0.brbody[i])	current
	30	i(@b.xbgr.xsky130_asc_res_xhigh_po_2p85_1_14.x1.brbody[i])	current
	31	i(@b.xbgr.xsky130_asc_res_xhigh_po_2p85_1_15.x0.brbody[i])	current
	32	i(@b.xbgr.xsky130_asc_res_xhigh_po_2p85_1_15.x1.brbody[i])	current
	33	i(@b.xbgr.xsky130_asc_res_xhigh_po_2p85_1_16.x0.brbody[i])	current
	34	i(@b.xbgr.xsky130_asc_res_xhigh_po_2p85_1_16.x1.brbody[i])	current
	35	i(@b.xbgr.xsky130_asc_res_xhigh_po_2p85_1_17.x0.brbody[i])	current
	36	i(@b.xbgr.xsky130_asc_res_xhigh_po_2p85_1_17.x1.brbody[i])	current
	37	i(@b.xbgr.xsky130_asc_res_xhigh_po_2p85_1_18.x0.brbody[i])	current
	38	i(@b.xbgr.xsky130_asc_res_xhigh_po_2p85_1_18.x1.brbody[i])	current
	39	i(@b.xbgr.xsky130_asc_res_xhigh_po_2p85_1_19.x0.brbody[i])	current
	40	i(@b.xbgr.xsky130_asc_res_xhigh_po_2p85_1_19.x1.brbody[i])	current
	41	i(@b.xbgr.xsky130_asc_res_xhigh_po_2p85_1_20.x0.brbody[i])	current
	42	i(@b.xbgr.xsky130_asc_res_xhigh_po_2p85_1_20.x1.brbody[i])	current
	43	i(@b.xbgr.xsky130_asc_res_xhigh_po_2p85_1_21.x0.brbody[i])	current
	44	i(@b.xbgr.xsky130_asc_res_xhigh_po_2p85_1_21.x1.brbody[i])	current
	45	i(@b.xbgr.xsky130_asc_res_xhigh_po_2p85_1_22.x0.brbody[i])	current
	46	i(@b.xbgr.xsky130_asc_res_xhigh_po_2p85_1_22.x1.brbody[i])	current
	47	i(@b.xbgr.xsky130_asc_res_xhigh_po_2p85_1_23.x0.brbody[i])	current
	48	i(@b.xbgr.xsky130_asc_res_xhigh_po_2p85_1_23.x1.brbody[i])	current
	49	i(@b.xbgr.xsky130_asc_res_xhigh_po_2p85_1_24.x0.brbody[i])	current
	50	i(@b.xbgr.xsky130_asc_res_xhigh_po_2p85_1_24.x1.brbody[i])	current
	51	i(@b.xbgr.xsky130_asc_res_xhigh_po_2p85_1_25.x0.brbody[i])	current
	52	i(@b.xbgr.xsky130_asc_res_xhigh_po_2p85_1_25.x1.brbody[i])	current
	53	i(@b.xbgr.xsky130_asc_res_xhigh_po_2p85_1_26.x0.brbody[i])	current
	54	i(@b.xbgr.xsky130_asc_res_xhigh_po_2p85_1_26.x1.brbody[i])	current
	55	i(@b.xbgr.xsky130_asc_res_xhigh_po_2p85_1_27.x0.brbody[i])	current
	56	i(@b.xbgr.xsky130_asc_res_xhigh_po_2p85_1_27.x1.brbody[i])	current
	57	i(@b.xbgr.xsky130_asc_res_xhigh_po_2p85_1_28.x0.brbody[i])	current
	58	i(@b.xbgr.xsky130_asc_res_xhigh_po_2p85_1_28.x1.brbody[i])	current
	59	i(@b.xbgr.xsky130_asc_res_xhigh_po_2p85_1_29.x0.brbody[i])	current
	60	i(@b.xbgr.xsky130_asc_res_xhigh_po_2p85_1_29.x1.brbody[i])	current
	61	i(@b.xbgr.xsky130_asc_res_xhigh_po_2p85_1_30.x0.brbody[i])	current
	62	i(@b.xbgr.xsky130_asc_res_xhigh_po_2p85_1_30.x1.brbody[i])	current
	63	i(@b.xbgr.xsky130_asc_res_xhigh_po_2p85_2_0.x0.brbody[i])	current
	64	i(@b.xbgr.xsky130_asc_res_xhigh_po_2p85_2_0.x1.brbody[i])	current
	65	i(@b.xbgr.xsky130_asc_res_xhigh_po_2p85_2_1.x0.brbody[i])	current
	66	i(@b.xbgr.xsky130_asc_res_xhigh_po_2p85_2_1.x1.brbody[i])	current
	67	i(@c.xbgr.c0[i])	current
	68	i(@c.xbgr.c1[i])	current
	69	i(@c.xbgr.c2[i])	current
	70	i(@c.xbgr.c3[i])	current
	71	i(@c.xbgr.c4[i])	current
	72	i(@c.xbgr.c5[i])	current
	73	i(@c.xbgr.c6[i])	current
	74	i(@c.xbgr.c7[i])	current
	75	i(@c.xbgr.c8[i])	current
	76	i(@c.xbgr.c9[i])	current
	77	i(@c.xbgr.c10[i])	current
	78	i(@c.xbgr.c11[i])	current
	79	i(@c.xbgr.c12[i])	current
	80	i(@c.xbgr.c13[i])	current
	81	i(@c.xbgr.c14[i])	current
	82	i(@c.xbgr.c15[i])	current
	83	i(@c.xbgr.c16[i])	current
	84	i(@c.xbgr.c17[i])	current
	85	i(@c.xbgr.c18[i])	current
	86	i(@c.xbgr.c19[i])	current
	87	i(@c.xbgr.c20[i])	current
	88	i(@c.xbgr.c21[i])	current
	89	i(@c.xbgr.c22[i])	current
	90	i(@c.xbgr.c23[i])	current
	91	i(@c.xbgr.c24[i])	current
	92	i(@c.xbgr.c25[i])	current
	93	i(@c.xbgr.c26[i])	current
	94	i(@c.xbgr.c27[i])	current
	95	i(@c.xbgr.c28[i])	current
	96	i(@c.xbgr.c29[i])	current
	97	i(@c.xbgr.c30[i])	current
	98	i(@c.xbgr.c31[i])	current
	99	i(@c.xbgr.c32[i])	current
	100	i(@c.xbgr.c33[i])	current
	101	i(@c.xbgr.c34[i])	current
	102	i(@c.xbgr.c35[i])	current
	103	i(@c.xbgr.c36[i])	current
	104	i(@c.xbgr.c37[i])	current
	105	i(@c.xbgr.c38[i])	current
	106	i(@c.xbgr.c39[i])	current
	107	i(@c.xbgr.c40[i])	current
	108	i(@c.xbgr.c41[i])	current
	109	i(@c.xbgr.c42[i])	current
	110	i(@c.xbgr.c43[i])	current
	111	i(@c.xbgr.c44[i])	current
	112	i(@c.xbgr.c45[i])	current
	113	i(@c.xbgr.c46[i])	current
	114	i(@c.xbgr.c47[i])	current
	115	i(@c.xbgr.c48[i])	current
	116	i(@c.xbgr.c49[i])	current
	117	i(@c.xbgr.c50[i])	current
	118	i(@c.xbgr.c51[i])	current
	119	i(@c.xbgr.c52[i])	current
	120	i(@c.xbgr.c53[i])	current
	121	i(@c.xbgr.c54[i])	current
	122	i(@c.xbgr.c55[i])	current
	123	i(@c.xbgr.c56[i])	current
	124	i(@c.xbgr.c57[i])	current
	125	i(@c.xbgr.c58[i])	current
	126	i(@c.xbgr.c59[i])	current
	127	i(@c.xbgr.c60[i])	current
	128	i(@c.xbgr.c61[i])	current
	129	i(@c.xbgr.c62[i])	current
	130	i(@c.xbgr.c63[i])	current
	131	i(@c.xbgr.c64[i])	current
	132	i(@c.xbgr.c65[i])	current
	133	i(@c.xbgr.c66[i])	current
	134	i(@c.xbgr.c67[i])	current
	135	i(@c.xbgr.c68[i])	current
	136	i(@c.xbgr.c69[i])	current
	137	i(@c.xbgr.c70[i])	current
	138	i(@c.xbgr.c71[i])	current
	139	i(@c.xbgr.c72[i])	current
	140	i(@c.xbgr.c73[i])	current
	141	i(@c.xbgr.c74[i])	current
	142	i(@c.xbgr.c75[i])	current
	143	i(@c.xbgr.c76[i])	current
	144	i(@c.xbgr.c77[i])	current
	145	i(@c.xbgr.c78[i])	current
	146	i(@c.xbgr.c79[i])	current
	147	i(@c.xbgr.c80[i])	current
	148	i(@c.xbgr.c81[i])	current
	149	i(@c.xbgr.c82[i])	current
	150	i(@c.xbgr.c83[i])	current
	151	i(@c.xbgr.c84[i])	current
	152	i(@c.xbgr.c85[i])	current
	153	i(@c.xbgr.c86[i])	current
	154	i(@c.xbgr.c87[i])	current
	155	i(@c.xbgr.c88[i])	current
	156	i(@c.xbgr.c89[i])	current
	157	i(@c.xbgr.c90[i])	current
	158	i(@c.xbgr.c91[i])	current
	159	i(@c.xbgr.c92[i])	current
	160	i(@c.xbgr.c93[i])	current
	161	i(@c.xbgr.c94[i])	current
	162	i(@c.xbgr.c95[i])	current
	163	i(@c.xbgr.c96[i])	current
	164	i(@c.xbgr.c97[i])	current
	165	i(@c.xbgr.c98[i])	current
	166	i(@c.xbgr.c99[i])	current
	167	i(@c.xbgr.c100[i])	current
	168	i(@c.xbgr.c101[i])	current
	169	i(@c.xbgr.c102[i])	current
	170	i(@c.xbgr.c103[i])	current
	171	i(@c.xbgr.c104[i])	current
	172	i(@c.xbgr.c105[i])	current
	173	i(@c.xbgr.c106[i])	current
	174	i(@c.xbgr.c107[i])	current
	175	i(@c.xbgr.c108[i])	current
	176	i(@c.xbgr.c109[i])	current
	177	i(@c.xbgr.c110[i])	current
	178	i(@c.xbgr.c111[i])	current
	179	i(@c.xbgr.c112[i])	current
	180	i(@c.xbgr.c113[i])	current
	181	i(@c.xbgr.c114[i])	current
	182	i(@c.xbgr.c115[i])	current
	183	i(@c.xbgr.c116[i])	current
	184	i(@c.xbgr.c117[i])	current
	185	i(@c.xbgr.c118[i])	current
	186	i(@c.xbgr.c119[i])	current
	187	i(@c.xbgr.c120[i])	current
	188	i(@c.xbgr.c121[i])	current
	189	i(@c.xbgr.c122[i])	current
	190	i(@c.xbgr.c123[i])	current
	191	i(@c.xbgr.c124[i])	current
	192	i(@c.xbgr.c125[i])	current
	193	i(@c.xbgr.c126[i])	current
	194	i(@c.xbgr.c127[i])	current
	195	i(@c.xbgr.c128[i])	current
	196	i(@c.xbgr.c129[i])	current
	197	i(@c.xbgr.c130[i])	current
	198	i(@c.xbgr.c131[i])	current
	199	i(@c.xbgr.c132[i])	current
	200	i(@c.xbgr.c133[i])	current
	201	i(@c.xbgr.c134[i])	current
	202	i(@c.xbgr.c135[i])	current
	203	i(@c.xbgr.c136[i])	current
	204	i(@c.xbgr.c137[i])	current
	205	i(@c.xbgr.c138[i])	current
	206	i(@c.xbgr.c139[i])	current
	207	i(@c.xbgr.c140[i])	current
	208	i(@c.xbgr.c141[i])	current
	209	i(@c.xbgr.c142[i])	current
	210	i(@c.xbgr.c143[i])	current
	211	i(@c.xbgr.c144[i])	current
	212	i(@c.xbgr.c145[i])	current
	213	i(@c.xbgr.c146[i])	current
	214	i(@c.xbgr.c147[i])	current
	215	i(@c.xbgr.c148[i])	current
	216	i(@c.xbgr.c149[i])	current
	217	i(@c.xbgr.c150[i])	current
	218	i(@c.xbgr.c151[i])	current
	219	i(@c.xbgr.c152[i])	current
	220	i(@c.xbgr.c153[i])	current
	221	i(@c.xbgr.c154[i])	current
	222	i(@c.xbgr.c155[i])	current
	223	i(@c.xbgr.c156[i])	current
	224	i(@c.xbgr.c157[i])	current
	225	i(@c.xbgr.c158[i])	current
	226	i(@c.xbgr.c159[i])	current
	227	i(@c.xbgr.c160[i])	current
	228	i(@c.xbgr.c161[i])	current
	229	i(@c.xbgr.c162[i])	current
	230	i(@c.xbgr.c163[i])	current
	231	i(@c.xbgr.c164[i])	current
	232	i(@c.xbgr.c165[i])	current
	233	i(@c.xbgr.c166[i])	current
	234	i(@c.xbgr.c167[i])	current
	235	i(@c.xbgr.c168[i])	current
	236	i(@c.xbgr.c169[i])	current
	237	i(@c.xbgr.c170[i])	current
	238	i(@c.xbgr.c171[i])	current
	239	i(@c.xbgr.c172[i])	current
	240	i(@c.xbgr.c173[i])	current
	241	i(@c.xbgr.c174[i])	current
	242	i(@c.xbgr.c175[i])	current
	243	i(@c.xbgr.c176[i])	current
	244	i(@c.xbgr.c177[i])	current
	245	i(@c.xbgr.c178[i])	current
	246	i(@c.xbgr.c179[i])	current
	247	i(@c.xbgr.c180[i])	current
	248	i(@c.xbgr.c181[i])	current
	249	i(@c.xbgr.c182[i])	current
	250	i(@c.xbgr.c183[i])	current
	251	i(@c.xbgr.c184[i])	current
	252	i(@c.xbgr.c185[i])	current
	253	i(@c.xbgr.c186[i])	current
	254	i(@c.xbgr.c187[i])	current
	255	i(@c.xbgr.c188[i])	current
	256	i(@c.xbgr.c189[i])	current
	257	i(@c.xbgr.c190[i])	current
	258	i(@c.xbgr.c191[i])	current
	259	i(@c.xbgr.c192[i])	current
	260	i(@c.xbgr.c193[i])	current
	261	i(@c.xbgr.c194[i])	current
	262	i(@c.xbgr.c195[i])	current
	263	i(@c.xbgr.c196[i])	current
	264	i(@c.xbgr.c197[i])	current
	265	i(@c.xbgr.c198[i])	current
	266	i(@c.xbgr.c199[i])	current
	267	i(@c.xbgr.c200[i])	current
	268	i(@c.xbgr.c201[i])	current
	269	i(@c.xbgr.c202[i])	current
	270	i(@c.xbgr.c203[i])	current
	271	i(@c.xbgr.c204[i])	current
	272	i(@c.xbgr.c205[i])	current
	273	i(@c.xbgr.c206[i])	current
	274	i(@c.xbgr.c207[i])	current
	275	i(@c.xbgr.c208[i])	current
	276	i(@c.xbgr.c209[i])	current
	277	i(@c.xbgr.c210[i])	current
	278	i(@c.xbgr.c211[i])	current
	279	i(@c.xbgr.c212[i])	current
	280	i(@c.xbgr.c213[i])	current
	281	i(@c.xbgr.c214[i])	current
	282	i(@c.xbgr.c215[i])	current
	283	i(@c.xbgr.c216[i])	current
	284	i(@c.xbgr.c217[i])	current
	285	i(@c.xbgr.c218[i])	current
	286	i(@c.xbgr.c219[i])	current
	287	i(@c.xbgr.c220[i])	current
	288	i(@c.xbgr.c221[i])	current
	289	i(@c.xbgr.c222[i])	current
	290	i(@c.xbgr.c223[i])	current
	291	i(@c.xbgr.c224[i])	current
	292	i(@c.xbgr.c225[i])	current
	293	i(@c.xbgr.c226[i])	current
	294	i(@c.xbgr.c227[i])	current
	295	i(@c.xbgr.c228[i])	current
	296	i(@c.xbgr.c229[i])	current
	297	i(@c.xbgr.c230[i])	current
	298	i(@c.xbgr.c231[i])	current
	299	i(@c.xbgr.c232[i])	current
	300	i(@c.xbgr.c233[i])	current
	301	i(@c.xbgr.c234[i])	current
	302	i(@c.xbgr.c235[i])	current
	303	i(@c.xbgr.c236[i])	current
	304	i(@c.xbgr.c237[i])	current
	305	i(@c.xbgr.c238[i])	current
	306	i(@c.xbgr.c239[i])	current
	307	i(@c.xbgr.c240[i])	current
	308	i(@c.xbgr.c241[i])	current
	309	i(@c.xbgr.c242[i])	current
	310	i(@c.xbgr.c243[i])	current
	311	i(@c.xbgr.c244[i])	current
	312	i(@c.xbgr.c245[i])	current
	313	i(@c.xbgr.c246[i])	current
	314	i(@c.xbgr.c247[i])	current
	315	i(@c.xbgr.c248[i])	current
	316	i(@c.xbgr.c249[i])	current
	317	i(@c.xbgr.c250[i])	current
	318	i(@c.xbgr.c251[i])	current
	319	i(@c.xbgr.c252[i])	current
	320	i(@c.xbgr.c253[i])	current
	321	i(@c.xbgr.c254[i])	current
	322	i(@c.xbgr.c255[i])	current
	323	i(@c.xbgr.c256[i])	current
	324	i(@c.xbgr.c257[i])	current
	325	i(@c.xbgr.c258[i])	current
	326	i(@c.xbgr.c259[i])	current
	327	i(@c.xbgr.c260[i])	current
	328	i(@c.xbgr.c261[i])	current
	329	i(@c.xbgr.c262[i])	current
	330	i(@c.xbgr.c263[i])	current
	331	i(@c.xbgr.c264[i])	current
	332	i(@c.xbgr.c265[i])	current
	333	i(@c.xbgr.c266[i])	current
	334	i(@c.xbgr.c267[i])	current
	335	i(@c.xbgr.c268[i])	current
	336	i(@c.xbgr.c269[i])	current
	337	i(@c.xbgr.c270[i])	current
	338	i(@c.xbgr.c271[i])	current
	339	i(@c.xbgr.c272[i])	current
	340	i(@c.xbgr.c273[i])	current
	341	i(@c.xbgr.c274[i])	current
	342	i(@c.xbgr.c275[i])	current
	343	i(@c.xbgr.c276[i])	current
	344	i(@c.xbgr.c277[i])	current
	345	i(@c.xbgr.c278[i])	current
	346	i(@c.xbgr.c279[i])	current
	347	i(@c.xbgr.c280[i])	current
	348	i(@c.xbgr.c281[i])	current
	349	i(@c.xbgr.c282[i])	current
	350	i(@c.xbgr.c283[i])	current
	351	i(@c.xbgr.c284[i])	current
	352	i(@c.xbgr.c285[i])	current
	353	i(@c.xbgr.c286[i])	current
	354	i(@c.xbgr.c287[i])	current
	355	i(@c.xbgr.c288[i])	current
	356	i(@c.xbgr.c289[i])	current
	357	i(@c.xbgr.c290[i])	current
	358	i(@c.xbgr.c291[i])	current
	359	i(@c.xbgr.c292[i])	current
	360	i(@c.xbgr.c293[i])	current
	361	i(@c.xbgr.c294[i])	current
	362	i(@c.xbgr.xsky130_asc_cap_mim_m3_1_0.c0[i])	current
	363	i(@c.xbgr.xsky130_asc_cap_mim_m3_1_0.c1[i])	current
	364	i(@c.xbgr.xsky130_asc_cap_mim_m3_1_0.c2[i])	current
	365	i(@c.xbgr.xsky130_asc_cap_mim_m3_1_0.c3[i])	current
	366	i(@c.xbgr.xsky130_asc_cap_mim_m3_1_0.c4[i])	current
	367	i(@c.xbgr.xsky130_asc_cap_mim_m3_1_0.x0.c1[i])	current
	368	i(@c.xbgr.xsky130_asc_cap_mim_m3_1_0.x1.c1[i])	current
	369	i(@c.xbgr.xsky130_asc_cap_mim_m3_1_0.x2.c1[i])	current
	370	i(@c.xbgr.xsky130_asc_cap_mim_m3_1_0.x3.c1[i])	current
	371	i(@c.xbgr.xsky130_asc_cap_mim_m3_1_0.x4.c1[i])	current
	372	i(@c.xbgr.xsky130_asc_cap_mim_m3_1_0.x5.c1[i])	current
	373	i(@c.xbgr.xsky130_asc_cap_mim_m3_1_0.x6.c1[i])	current
	374	i(@c.xbgr.xsky130_asc_cap_mim_m3_1_0.x7.c1[i])	current
	375	i(@c.xbgr.xsky130_asc_cap_mim_m3_1_0.x8.c1[i])	current
	376	i(@c.xbgr.xsky130_asc_cap_mim_m3_1_0.x9.c1[i])	current
	377	i(@c.xbgr.xsky130_asc_cap_mim_m3_1_0.x10.c1[i])	current
	378	i(@c.xbgr.xsky130_asc_cap_mim_m3_1_0.x11.c1[i])	current
	379	i(@c.xbgr.xsky130_asc_cap_mim_m3_1_0.x12.c1[i])	current
	380	i(@c.xbgr.xsky130_asc_cap_mim_m3_1_0.x13.c1[i])	current
	381	i(@c.xbgr.xsky130_asc_cap_mim_m3_1_0.x14.c1[i])	current
	382	i(@c.xbgr.xsky130_asc_cap_mim_m3_1_0.x15.c1[i])	current
	383	i(@c.xbgr.xsky130_asc_cap_mim_m3_1_0.x16.c1[i])	current
	384	i(@c.xbgr.xsky130_asc_cap_mim_m3_1_0.x17.c1[i])	current
	385	i(@c.xbgr.xsky130_asc_cap_mim_m3_1_0.x18.c1[i])	current
	386	i(@c.xbgr.xsky130_asc_cap_mim_m3_1_0.x19.c1[i])	current
	387	i(@c.xbgr.xsky130_asc_cap_mim_m3_1_1.c0[i])	current
	388	i(@c.xbgr.xsky130_asc_cap_mim_m3_1_1.c1[i])	current
	389	i(@c.xbgr.xsky130_asc_cap_mim_m3_1_1.c2[i])	current
	390	i(@c.xbgr.xsky130_asc_cap_mim_m3_1_1.c3[i])	current
	391	i(@c.xbgr.xsky130_asc_cap_mim_m3_1_1.c4[i])	current
	392	i(@c.xbgr.xsky130_asc_cap_mim_m3_1_1.x0.c1[i])	current
	393	i(@c.xbgr.xsky130_asc_cap_mim_m3_1_1.x1.c1[i])	current
	394	i(@c.xbgr.xsky130_asc_cap_mim_m3_1_1.x2.c1[i])	current
	395	i(@c.xbgr.xsky130_asc_cap_mim_m3_1_1.x3.c1[i])	current
	396	i(@c.xbgr.xsky130_asc_cap_mim_m3_1_1.x4.c1[i])	current
	397	i(@c.xbgr.xsky130_asc_cap_mim_m3_1_1.x5.c1[i])	current
	398	i(@c.xbgr.xsky130_asc_cap_mim_m3_1_1.x6.c1[i])	current
	399	i(@c.xbgr.xsky130_asc_cap_mim_m3_1_1.x7.c1[i])	current
	400	i(@c.xbgr.xsky130_asc_cap_mim_m3_1_1.x8.c1[i])	current
	401	i(@c.xbgr.xsky130_asc_cap_mim_m3_1_1.x9.c1[i])	current
	402	i(@c.xbgr.xsky130_asc_cap_mim_m3_1_1.x10.c1[i])	current
	403	i(@c.xbgr.xsky130_asc_cap_mim_m3_1_1.x11.c1[i])	current
	404	i(@c.xbgr.xsky130_asc_cap_mim_m3_1_1.x12.c1[i])	current
	405	i(@c.xbgr.xsky130_asc_cap_mim_m3_1_1.x13.c1[i])	current
	406	i(@c.xbgr.xsky130_asc_cap_mim_m3_1_1.x14.c1[i])	current
	407	i(@c.xbgr.xsky130_asc_cap_mim_m3_1_1.x15.c1[i])	current
	408	i(@c.xbgr.xsky130_asc_cap_mim_m3_1_1.x16.c1[i])	current
	409	i(@c.xbgr.xsky130_asc_cap_mim_m3_1_1.x17.c1[i])	current
	410	i(@c.xbgr.xsky130_asc_cap_mim_m3_1_1.x18.c1[i])	current
	411	i(@c.xbgr.xsky130_asc_cap_mim_m3_1_1.x19.c1[i])	current
	412	i(@c.xbgr.xsky130_asc_cap_mim_m3_1_2.c0[i])	current
	413	i(@c.xbgr.xsky130_asc_cap_mim_m3_1_2.c1[i])	current
	414	i(@c.xbgr.xsky130_asc_cap_mim_m3_1_2.c2[i])	current
	415	i(@c.xbgr.xsky130_asc_cap_mim_m3_1_2.c3[i])	current
	416	i(@c.xbgr.xsky130_asc_cap_mim_m3_1_2.c4[i])	current
	417	i(@c.xbgr.xsky130_asc_cap_mim_m3_1_2.x0.c1[i])	current
	418	i(@c.xbgr.xsky130_asc_cap_mim_m3_1_2.x1.c1[i])	current
	419	i(@c.xbgr.xsky130_asc_cap_mim_m3_1_2.x2.c1[i])	current
	420	i(@c.xbgr.xsky130_asc_cap_mim_m3_1_2.x3.c1[i])	current
	421	i(@c.xbgr.xsky130_asc_cap_mim_m3_1_2.x4.c1[i])	current
	422	i(@c.xbgr.xsky130_asc_cap_mim_m3_1_2.x5.c1[i])	current
	423	i(@c.xbgr.xsky130_asc_cap_mim_m3_1_2.x6.c1[i])	current
	424	i(@c.xbgr.xsky130_asc_cap_mim_m3_1_2.x7.c1[i])	current
	425	i(@c.xbgr.xsky130_asc_cap_mim_m3_1_2.x8.c1[i])	current
	426	i(@c.xbgr.xsky130_asc_cap_mim_m3_1_2.x9.c1[i])	current
	427	i(@c.xbgr.xsky130_asc_cap_mim_m3_1_2.x10.c1[i])	current
	428	i(@c.xbgr.xsky130_asc_cap_mim_m3_1_2.x11.c1[i])	current
	429	i(@c.xbgr.xsky130_asc_cap_mim_m3_1_2.x12.c1[i])	current
	430	i(@c.xbgr.xsky130_asc_cap_mim_m3_1_2.x13.c1[i])	current
	431	i(@c.xbgr.xsky130_asc_cap_mim_m3_1_2.x14.c1[i])	current
	432	i(@c.xbgr.xsky130_asc_cap_mim_m3_1_2.x15.c1[i])	current
	433	i(@c.xbgr.xsky130_asc_cap_mim_m3_1_2.x16.c1[i])	current
	434	i(@c.xbgr.xsky130_asc_cap_mim_m3_1_2.x17.c1[i])	current
	435	i(@c.xbgr.xsky130_asc_cap_mim_m3_1_2.x18.c1[i])	current
	436	i(@c.xbgr.xsky130_asc_cap_mim_m3_1_2.x19.c1[i])	current
	437	i(@c.xbgr.xsky130_asc_cap_mim_m3_1_3.c0[i])	current
	438	i(@c.xbgr.xsky130_asc_cap_mim_m3_1_3.c1[i])	current
	439	i(@c.xbgr.xsky130_asc_cap_mim_m3_1_3.c2[i])	current
	440	i(@c.xbgr.xsky130_asc_cap_mim_m3_1_3.c3[i])	current
	441	i(@c.xbgr.xsky130_asc_cap_mim_m3_1_3.c4[i])	current
	442	i(@c.xbgr.xsky130_asc_cap_mim_m3_1_3.x0.c1[i])	current
	443	i(@c.xbgr.xsky130_asc_cap_mim_m3_1_3.x1.c1[i])	current
	444	i(@c.xbgr.xsky130_asc_cap_mim_m3_1_3.x2.c1[i])	current
	445	i(@c.xbgr.xsky130_asc_cap_mim_m3_1_3.x3.c1[i])	current
	446	i(@c.xbgr.xsky130_asc_cap_mim_m3_1_3.x4.c1[i])	current
	447	i(@c.xbgr.xsky130_asc_cap_mim_m3_1_3.x5.c1[i])	current
	448	i(@c.xbgr.xsky130_asc_cap_mim_m3_1_3.x6.c1[i])	current
	449	i(@c.xbgr.xsky130_asc_cap_mim_m3_1_3.x7.c1[i])	current
	450	i(@c.xbgr.xsky130_asc_cap_mim_m3_1_3.x8.c1[i])	current
	451	i(@c.xbgr.xsky130_asc_cap_mim_m3_1_3.x9.c1[i])	current
	452	i(@c.xbgr.xsky130_asc_cap_mim_m3_1_3.x10.c1[i])	current
	453	i(@c.xbgr.xsky130_asc_cap_mim_m3_1_3.x11.c1[i])	current
	454	i(@c.xbgr.xsky130_asc_cap_mim_m3_1_3.x12.c1[i])	current
	455	i(@c.xbgr.xsky130_asc_cap_mim_m3_1_3.x13.c1[i])	current
	456	i(@c.xbgr.xsky130_asc_cap_mim_m3_1_3.x14.c1[i])	current
	457	i(@c.xbgr.xsky130_asc_cap_mim_m3_1_3.x15.c1[i])	current
	458	i(@c.xbgr.xsky130_asc_cap_mim_m3_1_3.x16.c1[i])	current
	459	i(@c.xbgr.xsky130_asc_cap_mim_m3_1_3.x17.c1[i])	current
	460	i(@c.xbgr.xsky130_asc_cap_mim_m3_1_3.x18.c1[i])	current
	461	i(@c.xbgr.xsky130_asc_cap_mim_m3_1_3.x19.c1[i])	current
	462	i(@c.xbgr.xsky130_asc_cap_mim_m3_1_4.c0[i])	current
	463	i(@c.xbgr.xsky130_asc_cap_mim_m3_1_4.c1[i])	current
	464	i(@c.xbgr.xsky130_asc_cap_mim_m3_1_4.c2[i])	current
	465	i(@c.xbgr.xsky130_asc_cap_mim_m3_1_4.c3[i])	current
	466	i(@c.xbgr.xsky130_asc_cap_mim_m3_1_4.c4[i])	current
	467	i(@c.xbgr.xsky130_asc_cap_mim_m3_1_4.x0.c1[i])	current
	468	i(@c.xbgr.xsky130_asc_cap_mim_m3_1_4.x1.c1[i])	current
	469	i(@c.xbgr.xsky130_asc_cap_mim_m3_1_4.x2.c1[i])	current
	470	i(@c.xbgr.xsky130_asc_cap_mim_m3_1_4.x3.c1[i])	current
	471	i(@c.xbgr.xsky130_asc_cap_mim_m3_1_4.x4.c1[i])	current
	472	i(@c.xbgr.xsky130_asc_cap_mim_m3_1_4.x5.c1[i])	current
	473	i(@c.xbgr.xsky130_asc_cap_mim_m3_1_4.x6.c1[i])	current
	474	i(@c.xbgr.xsky130_asc_cap_mim_m3_1_4.x7.c1[i])	current
	475	i(@c.xbgr.xsky130_asc_cap_mim_m3_1_4.x8.c1[i])	current
	476	i(@c.xbgr.xsky130_asc_cap_mim_m3_1_4.x9.c1[i])	current
	477	i(@c.xbgr.xsky130_asc_cap_mim_m3_1_4.x10.c1[i])	current
	478	i(@c.xbgr.xsky130_asc_cap_mim_m3_1_4.x11.c1[i])	current
	479	i(@c.xbgr.xsky130_asc_cap_mim_m3_1_4.x12.c1[i])	current
	480	i(@c.xbgr.xsky130_asc_cap_mim_m3_1_4.x13.c1[i])	current
	481	i(@c.xbgr.xsky130_asc_cap_mim_m3_1_4.x14.c1[i])	current
	482	i(@c.xbgr.xsky130_asc_cap_mim_m3_1_4.x15.c1[i])	current
	483	i(@c.xbgr.xsky130_asc_cap_mim_m3_1_4.x16.c1[i])	current
	484	i(@c.xbgr.xsky130_asc_cap_mim_m3_1_4.x17.c1[i])	current
	485	i(@c.xbgr.xsky130_asc_cap_mim_m3_1_4.x18.c1[i])	current
	486	i(@c.xbgr.xsky130_asc_cap_mim_m3_1_4.x19.c1[i])	current
	487	i(@c.xbgr.xsky130_asc_cap_mim_m3_1_5.c0[i])	current
	488	i(@c.xbgr.xsky130_asc_cap_mim_m3_1_5.c1[i])	current
	489	i(@c.xbgr.xsky130_asc_cap_mim_m3_1_5.c2[i])	current
	490	i(@c.xbgr.xsky130_asc_cap_mim_m3_1_5.c3[i])	current
	491	i(@c.xbgr.xsky130_asc_cap_mim_m3_1_5.c4[i])	current
	492	i(@c.xbgr.xsky130_asc_cap_mim_m3_1_5.x0.c1[i])	current
	493	i(@c.xbgr.xsky130_asc_cap_mim_m3_1_5.x1.c1[i])	current
	494	i(@c.xbgr.xsky130_asc_cap_mim_m3_1_5.x2.c1[i])	current
	495	i(@c.xbgr.xsky130_asc_cap_mim_m3_1_5.x3.c1[i])	current
	496	i(@c.xbgr.xsky130_asc_cap_mim_m3_1_5.x4.c1[i])	current
	497	i(@c.xbgr.xsky130_asc_cap_mim_m3_1_5.x5.c1[i])	current
	498	i(@c.xbgr.xsky130_asc_cap_mim_m3_1_5.x6.c1[i])	current
	499	i(@c.xbgr.xsky130_asc_cap_mim_m3_1_5.x7.c1[i])	current
	500	i(@c.xbgr.xsky130_asc_cap_mim_m3_1_5.x8.c1[i])	current
	501	i(@c.xbgr.xsky130_asc_cap_mim_m3_1_5.x9.c1[i])	current
	502	i(@c.xbgr.xsky130_asc_cap_mim_m3_1_5.x10.c1[i])	current
	503	i(@c.xbgr.xsky130_asc_cap_mim_m3_1_5.x11.c1[i])	current
	504	i(@c.xbgr.xsky130_asc_cap_mim_m3_1_5.x12.c1[i])	current
	505	i(@c.xbgr.xsky130_asc_cap_mim_m3_1_5.x13.c1[i])	current
	506	i(@c.xbgr.xsky130_asc_cap_mim_m3_1_5.x14.c1[i])	current
	507	i(@c.xbgr.xsky130_asc_cap_mim_m3_1_5.x15.c1[i])	current
	508	i(@c.xbgr.xsky130_asc_cap_mim_m3_1_5.x16.c1[i])	current
	509	i(@c.xbgr.xsky130_asc_cap_mim_m3_1_5.x17.c1[i])	current
	510	i(@c.xbgr.xsky130_asc_cap_mim_m3_1_5.x18.c1[i])	current
	511	i(@c.xbgr.xsky130_asc_cap_mim_m3_1_5.x19.c1[i])	current
	512	i(@c.xbgr.xsky130_asc_cap_mim_m3_1_6.c0[i])	current
	513	i(@c.xbgr.xsky130_asc_cap_mim_m3_1_6.c1[i])	current
	514	i(@c.xbgr.xsky130_asc_cap_mim_m3_1_6.c2[i])	current
	515	i(@c.xbgr.xsky130_asc_cap_mim_m3_1_6.c3[i])	current
	516	i(@c.xbgr.xsky130_asc_cap_mim_m3_1_6.c4[i])	current
	517	i(@c.xbgr.xsky130_asc_cap_mim_m3_1_6.x0.c1[i])	current
	518	i(@c.xbgr.xsky130_asc_cap_mim_m3_1_6.x1.c1[i])	current
	519	i(@c.xbgr.xsky130_asc_cap_mim_m3_1_6.x2.c1[i])	current
	520	i(@c.xbgr.xsky130_asc_cap_mim_m3_1_6.x3.c1[i])	current
	521	i(@c.xbgr.xsky130_asc_cap_mim_m3_1_6.x4.c1[i])	current
	522	i(@c.xbgr.xsky130_asc_cap_mim_m3_1_6.x5.c1[i])	current
	523	i(@c.xbgr.xsky130_asc_cap_mim_m3_1_6.x6.c1[i])	current
	524	i(@c.xbgr.xsky130_asc_cap_mim_m3_1_6.x7.c1[i])	current
	525	i(@c.xbgr.xsky130_asc_cap_mim_m3_1_6.x8.c1[i])	current
	526	i(@c.xbgr.xsky130_asc_cap_mim_m3_1_6.x9.c1[i])	current
	527	i(@c.xbgr.xsky130_asc_cap_mim_m3_1_6.x10.c1[i])	current
	528	i(@c.xbgr.xsky130_asc_cap_mim_m3_1_6.x11.c1[i])	current
	529	i(@c.xbgr.xsky130_asc_cap_mim_m3_1_6.x12.c1[i])	current
	530	i(@c.xbgr.xsky130_asc_cap_mim_m3_1_6.x13.c1[i])	current
	531	i(@c.xbgr.xsky130_asc_cap_mim_m3_1_6.x14.c1[i])	current
	532	i(@c.xbgr.xsky130_asc_cap_mim_m3_1_6.x15.c1[i])	current
	533	i(@c.xbgr.xsky130_asc_cap_mim_m3_1_6.x16.c1[i])	current
	534	i(@c.xbgr.xsky130_asc_cap_mim_m3_1_6.x17.c1[i])	current
	535	i(@c.xbgr.xsky130_asc_cap_mim_m3_1_6.x18.c1[i])	current
	536	i(@c.xbgr.xsky130_asc_cap_mim_m3_1_6.x19.c1[i])	current
	537	i(@c.xbgr.xsky130_asc_cap_mim_m3_1_7.c0[i])	current
	538	i(@c.xbgr.xsky130_asc_cap_mim_m3_1_7.c1[i])	current
	539	i(@c.xbgr.xsky130_asc_cap_mim_m3_1_7.c2[i])	current
	540	i(@c.xbgr.xsky130_asc_cap_mim_m3_1_7.c3[i])	current
	541	i(@c.xbgr.xsky130_asc_cap_mim_m3_1_7.c4[i])	current
	542	i(@c.xbgr.xsky130_asc_cap_mim_m3_1_7.x0.c1[i])	current
	543	i(@c.xbgr.xsky130_asc_cap_mim_m3_1_7.x1.c1[i])	current
	544	i(@c.xbgr.xsky130_asc_cap_mim_m3_1_7.x2.c1[i])	current
	545	i(@c.xbgr.xsky130_asc_cap_mim_m3_1_7.x3.c1[i])	current
	546	i(@c.xbgr.xsky130_asc_cap_mim_m3_1_7.x4.c1[i])	current
	547	i(@c.xbgr.xsky130_asc_cap_mim_m3_1_7.x5.c1[i])	current
	548	i(@c.xbgr.xsky130_asc_cap_mim_m3_1_7.x6.c1[i])	current
	549	i(@c.xbgr.xsky130_asc_cap_mim_m3_1_7.x7.c1[i])	current
	550	i(@c.xbgr.xsky130_asc_cap_mim_m3_1_7.x8.c1[i])	current
	551	i(@c.xbgr.xsky130_asc_cap_mim_m3_1_7.x9.c1[i])	current
	552	i(@c.xbgr.xsky130_asc_cap_mim_m3_1_7.x10.c1[i])	current
	553	i(@c.xbgr.xsky130_asc_cap_mim_m3_1_7.x11.c1[i])	current
	554	i(@c.xbgr.xsky130_asc_cap_mim_m3_1_7.x12.c1[i])	current
	555	i(@c.xbgr.xsky130_asc_cap_mim_m3_1_7.x13.c1[i])	current
	556	i(@c.xbgr.xsky130_asc_cap_mim_m3_1_7.x14.c1[i])	current
	557	i(@c.xbgr.xsky130_asc_cap_mim_m3_1_7.x15.c1[i])	current
	558	i(@c.xbgr.xsky130_asc_cap_mim_m3_1_7.x16.c1[i])	current
	559	i(@c.xbgr.xsky130_asc_cap_mim_m3_1_7.x17.c1[i])	current
	560	i(@c.xbgr.xsky130_asc_cap_mim_m3_1_7.x18.c1[i])	current
	561	i(@c.xbgr.xsky130_asc_cap_mim_m3_1_7.x19.c1[i])	current
	562	i(@c.xbgr.xsky130_asc_cap_mim_m3_1_8.c0[i])	current
	563	i(@c.xbgr.xsky130_asc_cap_mim_m3_1_8.c1[i])	current
	564	i(@c.xbgr.xsky130_asc_cap_mim_m3_1_8.c2[i])	current
	565	i(@c.xbgr.xsky130_asc_cap_mim_m3_1_8.c3[i])	current
	566	i(@c.xbgr.xsky130_asc_cap_mim_m3_1_8.c4[i])	current
	567	i(@c.xbgr.xsky130_asc_cap_mim_m3_1_8.x0.c1[i])	current
	568	i(@c.xbgr.xsky130_asc_cap_mim_m3_1_8.x1.c1[i])	current
	569	i(@c.xbgr.xsky130_asc_cap_mim_m3_1_8.x2.c1[i])	current
	570	i(@c.xbgr.xsky130_asc_cap_mim_m3_1_8.x3.c1[i])	current
	571	i(@c.xbgr.xsky130_asc_cap_mim_m3_1_8.x4.c1[i])	current
	572	i(@c.xbgr.xsky130_asc_cap_mim_m3_1_8.x5.c1[i])	current
	573	i(@c.xbgr.xsky130_asc_cap_mim_m3_1_8.x6.c1[i])	current
	574	i(@c.xbgr.xsky130_asc_cap_mim_m3_1_8.x7.c1[i])	current
	575	i(@c.xbgr.xsky130_asc_cap_mim_m3_1_8.x8.c1[i])	current
	576	i(@c.xbgr.xsky130_asc_cap_mim_m3_1_8.x9.c1[i])	current
	577	i(@c.xbgr.xsky130_asc_cap_mim_m3_1_8.x10.c1[i])	current
	578	i(@c.xbgr.xsky130_asc_cap_mim_m3_1_8.x11.c1[i])	current
	579	i(@c.xbgr.xsky130_asc_cap_mim_m3_1_8.x12.c1[i])	current
	580	i(@c.xbgr.xsky130_asc_cap_mim_m3_1_8.x13.c1[i])	current
	581	i(@c.xbgr.xsky130_asc_cap_mim_m3_1_8.x14.c1[i])	current
	582	i(@c.xbgr.xsky130_asc_cap_mim_m3_1_8.x15.c1[i])	current
	583	i(@c.xbgr.xsky130_asc_cap_mim_m3_1_8.x16.c1[i])	current
	584	i(@c.xbgr.xsky130_asc_cap_mim_m3_1_8.x17.c1[i])	current
	585	i(@c.xbgr.xsky130_asc_cap_mim_m3_1_8.x18.c1[i])	current
	586	i(@c.xbgr.xsky130_asc_cap_mim_m3_1_8.x19.c1[i])	current
	587	i(@c.xbgr.xsky130_asc_cap_mim_m3_1_9.c0[i])	current
	588	i(@c.xbgr.xsky130_asc_cap_mim_m3_1_9.c1[i])	current
	589	i(@c.xbgr.xsky130_asc_cap_mim_m3_1_9.c2[i])	current
	590	i(@c.xbgr.xsky130_asc_cap_mim_m3_1_9.c3[i])	current
	591	i(@c.xbgr.xsky130_asc_cap_mim_m3_1_9.c4[i])	current
	592	i(@c.xbgr.xsky130_asc_cap_mim_m3_1_9.x0.c1[i])	current
	593	i(@c.xbgr.xsky130_asc_cap_mim_m3_1_9.x1.c1[i])	current
	594	i(@c.xbgr.xsky130_asc_cap_mim_m3_1_9.x2.c1[i])	current
	595	i(@c.xbgr.xsky130_asc_cap_mim_m3_1_9.x3.c1[i])	current
	596	i(@c.xbgr.xsky130_asc_cap_mim_m3_1_9.x4.c1[i])	current
	597	i(@c.xbgr.xsky130_asc_cap_mim_m3_1_9.x5.c1[i])	current
	598	i(@c.xbgr.xsky130_asc_cap_mim_m3_1_9.x6.c1[i])	current
	599	i(@c.xbgr.xsky130_asc_cap_mim_m3_1_9.x7.c1[i])	current
	600	i(@c.xbgr.xsky130_asc_cap_mim_m3_1_9.x8.c1[i])	current
	601	i(@c.xbgr.xsky130_asc_cap_mim_m3_1_9.x9.c1[i])	current
	602	i(@c.xbgr.xsky130_asc_cap_mim_m3_1_9.x10.c1[i])	current
	603	i(@c.xbgr.xsky130_asc_cap_mim_m3_1_9.x11.c1[i])	current
	604	i(@c.xbgr.xsky130_asc_cap_mim_m3_1_9.x12.c1[i])	current
	605	i(@c.xbgr.xsky130_asc_cap_mim_m3_1_9.x13.c1[i])	current
	606	i(@c.xbgr.xsky130_asc_cap_mim_m3_1_9.x14.c1[i])	current
	607	i(@c.xbgr.xsky130_asc_cap_mim_m3_1_9.x15.c1[i])	current
	608	i(@c.xbgr.xsky130_asc_cap_mim_m3_1_9.x16.c1[i])	current
	609	i(@c.xbgr.xsky130_asc_cap_mim_m3_1_9.x17.c1[i])	current
	610	i(@c.xbgr.xsky130_asc_cap_mim_m3_1_9.x18.c1[i])	current
	611	i(@c.xbgr.xsky130_asc_cap_mim_m3_1_9.x19.c1[i])	current
	612	i(@c.xbgr.xsky130_asc_nfet_01v8_lvt_1_0.c0[i])	current
	613	i(@c.xbgr.xsky130_asc_nfet_01v8_lvt_1_0.c1[i])	current
	614	i(@c.xbgr.xsky130_asc_nfet_01v8_lvt_1_0.c2[i])	current
	615	i(@c.xbgr.xsky130_asc_nfet_01v8_lvt_1_0.c3[i])	current
	616	i(@c.xbgr.xsky130_asc_nfet_01v8_lvt_1_0.c4[i])	current
	617	i(@c.xbgr.xsky130_asc_nfet_01v8_lvt_1_0.c5[i])	current
	618	i(@c.xbgr.xsky130_asc_nfet_01v8_lvt_1_0.c6[i])	current
	619	i(@c.xbgr.xsky130_asc_nfet_01v8_lvt_1_0.c7[i])	current
	620	i(@c.xbgr.xsky130_asc_nfet_01v8_lvt_1_1.c0[i])	current
	621	i(@c.xbgr.xsky130_asc_nfet_01v8_lvt_1_1.c1[i])	current
	622	i(@c.xbgr.xsky130_asc_nfet_01v8_lvt_1_1.c2[i])	current
	623	i(@c.xbgr.xsky130_asc_nfet_01v8_lvt_1_1.c3[i])	current
	624	i(@c.xbgr.xsky130_asc_nfet_01v8_lvt_1_1.c4[i])	current
	625	i(@c.xbgr.xsky130_asc_nfet_01v8_lvt_1_1.c5[i])	current
	626	i(@c.xbgr.xsky130_asc_nfet_01v8_lvt_1_1.c6[i])	current